DF-ISE text

Info {
  version   = 1.0
  type      = xyplot
  datasets  = [
    "time"
    "A OuterVoltage" "A InnerVoltage" "A QuasiFermiPotential" "A DisplacementCurrent" "A eCurrent"
    "A hCurrent" "A TotalCurrent" "A Charge" "B OuterVoltage" "B InnerVoltage"
    "B QuasiFermiPotential" "B DisplacementCurrent" "B eCurrent" "B hCurrent" "B TotalCurrent"
    "B Charge" ]
  functions = [
    Time
    OuterVoltage InnerVoltage QuasiFermiPotential DisplacementCurrent eCurrent
    hCurrent TotalCurrent Charge OuterVoltage InnerVoltage
    QuasiFermiPotential DisplacementCurrent eCurrent hCurrent TotalCurrent
    Charge ]
}

Data {
      1.00000000000000E-03
      1.00000000000000E-03   1.00000000000000E-03   0.00000000000000E+00   0.00000000000000E+00   2.27030606400614E-07
      1.67622105757528E-19   2.27030606400781E-07   1.03594140000082E-19   0.00000000000000E+00   0.00000000000000E+00
      0.00000000000000E+00   0.00000000000000E+00  -2.27030606400614E-07  -1.67622105757528E-19  -2.27030606400781E-07
     -1.03594140000083E-19
      3.00000000000000E-03
      3.00000000000000E-03   3.00000000000000E-03   0.00000000000000E+00   0.00000000000000E+00   6.81091819201527E-07
      5.02866317272284E-19   6.81091819202030E-07   3.10782420000011E-19   0.00000000000000E+00   0.00000000000000E+00
      0.00000000000000E+00   0.00000000000000E+00  -6.81091819201527E-07  -5.02866317272284E-19  -6.81091819202030E-07
     -3.10782420000010E-19
      7.00000000000000E-03
      7.00000000000000E-03   7.00000000000000E-03   0.00000000000000E+00   0.00000000000000E+00   1.58921424480338E-06
      1.17335474030177E-18   1.58921424480455E-06   7.25158979999924E-19   0.00000000000000E+00   0.00000000000000E+00
      0.00000000000000E+00   0.00000000000000E+00  -1.58921424480338E-06  -1.17335474030177E-18  -1.58921424480455E-06
     -7.25158979999922E-19
      1.50000000000000E-02
      1.50000000000000E-02   1.50000000000000E-02   0.00000000000000E+00   0.00000000000000E+00   3.40545909600709E-06
      2.51433158636085E-18   3.40545909600961E-06   1.55391209999975E-18   0.00000000000000E+00   0.00000000000000E+00
      0.00000000000000E+00   0.00000000000000E+00  -3.40545909600709E-06  -2.51433158636085E-18  -3.40545909600961E-06
     -1.55391209999975E-18
      3.10000000000000E-02
      3.10000000000000E-02   3.10000000000000E-02   0.00000000000000E+00   0.00000000000000E+00   7.03794879841578E-06
      5.19628527847985E-18   7.03794879842098E-06   3.21141834000002E-18   0.00000000000000E+00   0.00000000000000E+00
      0.00000000000000E+00   0.00000000000000E+00  -7.03794879841578E-06  -5.19628527847985E-18  -7.03794879842098E-06
     -3.21141834000001E-18
      6.30000000000000E-02
      6.30000000000000E-02   6.30000000000000E-02   0.00000000000000E+00   0.00000000000000E+00   1.43029282032317E-05
      1.05601926627170E-17   1.43029282032422E-05   6.52643081999994E-18   0.00000000000000E+00   0.00000000000000E+00
      0.00000000000000E+00   0.00000000000000E+00  -1.43029282032317E-05  -1.05601926627170E-17  -1.43029282032422E-05
     -6.52643081999992E-18
      1.13000000000000E-01
      1.13000000000000E-01   1.13000000000000E-01   0.00000000000000E+00   0.00000000000000E+00   2.56544585232569E-05
      1.89412979505877E-17   2.56544585232759E-05   1.17061378199999E-17   0.00000000000000E+00   0.00000000000000E+00
      0.00000000000000E+00   0.00000000000000E+00  -2.56544585232569E-05  -1.89412979505877E-17  -2.56544585232759E-05
     -1.17061378199999E-17
      1.63000000000000E-01
      1.63000000000000E-01   1.63000000000000E-01   0.00000000000000E+00   0.00000000000000E+00   3.70059888432836E-05
      2.73224032384595E-17   3.70059888433109E-05   1.68858448200005E-17   0.00000000000000E+00   0.00000000000000E+00
      0.00000000000000E+00   0.00000000000000E+00  -3.70059888432836E-05  -2.73224032384595E-17  -3.70059888433109E-05
     -1.68858448200005E-17
      2.13000000000000E-01
      2.13000000000000E-01   2.13000000000000E-01   0.00000000000000E+00   0.00000000000000E+00   4.83575191633074E-05
      3.57035085263292E-17   4.83575191633432E-05   2.20655518199999E-17   0.00000000000000E+00   0.00000000000000E+00
      0.00000000000000E+00   0.00000000000000E+00  -4.83575191633074E-05  -3.57035085263292E-17  -4.83575191633432E-05
     -2.20655518199998E-17
      2.63000000000000E-01
      2.63000000000000E-01   2.63000000000000E-01   0.00000000000000E+00   0.00000000000000E+00   5.97090494833326E-05
      4.40846138141999E-17   5.97090494833767E-05   2.72452588199999E-17   0.00000000000000E+00   0.00000000000000E+00
      0.00000000000000E+00   0.00000000000000E+00  -5.97090494833326E-05  -4.40846138141999E-17  -5.97090494833767E-05
     -2.72452588199998E-17
      3.13000000000000E-01
      3.13000000000000E-01   3.13000000000000E-01   0.00000000000000E+00   0.00000000000000E+00   7.10605798033589E-05
      5.24657191020713E-17   7.10605798034113E-05   3.24249658200002E-17   0.00000000000000E+00   0.00000000000000E+00
      0.00000000000000E+00   0.00000000000000E+00  -7.10605798033589E-05  -5.24657191020713E-17  -7.10605798034113E-05
     -3.24249658200001E-17
      3.63000000000000E-01
      3.63000000000000E-01   3.63000000000000E-01   0.00000000000000E+00   0.00000000000000E+00   8.24121101233845E-05
      6.08468243899424E-17   8.24121101234454E-05   3.76046728200003E-17   0.00000000000000E+00   0.00000000000000E+00
      0.00000000000000E+00   0.00000000000000E+00  -8.24121101233845E-05  -6.08468243899424E-17  -8.24121101234454E-05
     -3.76046728200004E-17
      4.13000000000000E-01
      4.13000000000000E-01   4.13000000000000E-01   0.00000000000000E+00   0.00000000000000E+00   9.37636404434099E-05
      6.92279296778132E-17   9.37636404434791E-05   4.27843798200005E-17   0.00000000000000E+00   0.00000000000000E+00
      0.00000000000000E+00   0.00000000000000E+00  -9.37636404434099E-05  -6.92279296778132E-17  -9.37636404434791E-05
     -4.27843798200004E-17
      4.63000000000000E-01
      4.63000000000000E-01   4.63000000000000E-01   0.00000000000000E+00   0.00000000000000E+00   1.05115170763435E-04
      7.76090349656839E-17   1.05115170763513E-04   4.79640868200004E-17   0.00000000000000E+00   0.00000000000000E+00
      0.00000000000000E+00   0.00000000000000E+00  -1.05115170763435E-04  -7.76090349656839E-17  -1.05115170763513E-04
     -4.79640868200003E-17
      5.13000000000000E-01
      5.13000000000000E-01   5.13000000000000E-01   0.00000000000000E+00   0.00000000000000E+00   1.16466701083460E-04
      8.59901402535546E-17   1.16466701083546E-04   5.31437938200003E-17   0.00000000000000E+00   0.00000000000000E+00
      0.00000000000000E+00   0.00000000000000E+00  -1.16466701083460E-04  -8.59901402535546E-17  -1.16466701083546E-04
     -5.31437938200004E-17
      5.63000000000000E-01
      5.63000000000000E-01   5.63000000000000E-01   0.00000000000000E+00   0.00000000000000E+00   1.27818231403484E-04
      9.43712455414245E-17   1.27818231403579E-04   5.83235008199997E-17   0.00000000000000E+00   0.00000000000000E+00
      0.00000000000000E+00   0.00000000000000E+00  -1.27818231403484E-04  -9.43712455414245E-17  -1.27818231403579E-04
     -5.83235008199997E-17
      6.13000000000000E-01
      6.13000000000000E-01   6.13000000000000E-01   0.00000000000000E+00   0.00000000000000E+00   1.39169761723509E-04
      1.02752350829295E-16   1.39169761723612E-04   6.35032078199997E-17   0.00000000000000E+00   0.00000000000000E+00
      0.00000000000000E+00   0.00000000000000E+00  -1.39169761723509E-04  -1.02752350829295E-16  -1.39169761723612E-04
     -6.35032078199997E-17
      6.63000000000000E-01
      6.63000000000000E-01   6.63000000000000E-01   0.00000000000000E+00   0.00000000000000E+00   1.50521292043536E-04
      1.11133456117167E-16   1.50521292043647E-04   6.86829148200002E-17   0.00000000000000E+00   0.00000000000000E+00
      0.00000000000000E+00   0.00000000000000E+00  -1.50521292043536E-04  -1.11133456117167E-16  -1.50521292043647E-04
     -6.86829148200003E-17
      7.13000000000000E-01
      7.13000000000000E-01   7.13000000000000E-01   0.00000000000000E+00   0.00000000000000E+00   1.61872822363561E-04
      1.19514561405038E-16   1.61872822363681E-04   7.38626218200003E-17   0.00000000000000E+00   0.00000000000000E+00
      0.00000000000000E+00   0.00000000000000E+00  -1.61872822363561E-04  -1.19514561405038E-16  -1.61872822363681E-04
     -7.38626218200001E-17
      7.63000000000000E-01
      7.63000000000000E-01   7.63000000000000E-01   0.00000000000000E+00   0.00000000000000E+00   1.73224352683585E-04
      1.27895666692908E-16   1.73224352683713E-04   7.90423288199994E-17   0.00000000000000E+00   0.00000000000000E+00
      0.00000000000000E+00   0.00000000000000E+00  -1.73224352683585E-04  -1.27895666692908E-16  -1.73224352683713E-04
     -7.90423288199998E-17
      8.13000000000000E-01
      8.13000000000000E-01   8.13000000000000E-01   0.00000000000000E+00   0.00000000000000E+00   1.84575883003611E-04
      1.36276771980778E-16   1.84575883003747E-04   8.42220358199997E-17   0.00000000000000E+00   0.00000000000000E+00
      0.00000000000000E+00   0.00000000000000E+00  -1.84575883003611E-04  -1.36276771980778E-16  -1.84575883003747E-04
     -8.42220358199996E-17
      8.63000000000000E-01
      8.63000000000000E-01   8.63000000000000E-01   0.00000000000000E+00   0.00000000000000E+00   1.95927413323637E-04
      1.44657877268650E-16   1.95927413323782E-04   8.94017428200002E-17   0.00000000000000E+00   0.00000000000000E+00
      0.00000000000000E+00   0.00000000000000E+00  -1.95927413323637E-04  -1.44657877268650E-16  -1.95927413323782E-04
     -8.94017428200002E-17
      9.13000000000000E-01
      9.13000000000000E-01   9.13000000000000E-01   0.00000000000000E+00   0.00000000000000E+00   2.07278943643662E-04
      1.53038982556521E-16   2.07278943643815E-04   9.45814498200001E-17   0.00000000000000E+00   0.00000000000000E+00
      0.00000000000000E+00   0.00000000000000E+00  -2.07278943643662E-04  -1.53038982556521E-16  -2.07278943643815E-04
     -9.45814498200002E-17
      9.63000000000000E-01
      9.63000000000000E-01   9.63000000000000E-01   0.00000000000000E+00   0.00000000000000E+00   2.18630473963686E-04
      1.61420087844391E-16   2.18630473963847E-04   9.97611568199995E-17   0.00000000000000E+00   0.00000000000000E+00
      0.00000000000000E+00   0.00000000000000E+00  -2.18630473963686E-04  -1.61420087844391E-16  -2.18630473963847E-04
     -9.97611568199995E-17
      1.00000000000000E+00
      1.00000000000000E+00   1.00000000000000E+00   0.00000000000000E+00   0.00000000000000E+00   2.27030606400505E-04
      1.67622105757415E-16   2.27030606400673E-04   1.03594139999999E-16   0.00000000000000E+00   0.00000000000000E+00
      0.00000000000000E+00   0.00000000000000E+00  -2.27030606400505E-04  -1.67622105757415E-16  -2.27030606400673E-04
     -1.03594139999999E-16
      1.00000000000000E-03
      9.98000000000000E-01   9.98000000000000E-01   0.00000000000000E+00   0.00000000000000E+00   2.26576545187705E-04
      1.67286861545901E-16   2.26576545187872E-04   1.03386951720000E-16   0.00000000000000E+00   0.00000000000000E+00
      0.00000000000000E+00   0.00000000000000E+00  -2.26576545187705E-04  -1.67286861545901E-16  -2.26576545187872E-04
     -1.03386951720000E-16
      3.00000000000000E-03
      9.94000000000000E-01   9.94000000000000E-01   0.00000000000000E+00   0.00000000000000E+00   2.25668422762104E-04
      1.66616373122871E-16   2.25668422762270E-04   1.02972575160000E-16   0.00000000000000E+00   0.00000000000000E+00
      0.00000000000000E+00   0.00000000000000E+00  -2.25668422762104E-04  -1.66616373122871E-16  -2.25668422762270E-04
     -1.02972575160000E-16
      7.00000000000000E-03
      9.86000000000000E-01   9.86000000000000E-01   0.00000000000000E+00   0.00000000000000E+00   2.23852177910898E-04
      1.65275396276811E-16   2.23852177911063E-04   1.02143822040000E-16   0.00000000000000E+00   0.00000000000000E+00
      0.00000000000000E+00   0.00000000000000E+00  -2.23852177910898E-04  -1.65275396276811E-16  -2.23852177911063E-04
     -1.02143822039999E-16
      1.50000000000000E-02
      9.70000000000000E-01   9.70000000000000E-01   0.00000000000000E+00   0.00000000000000E+00   2.20219688208490E-04
      1.62593442584692E-16   2.20219688208652E-04   1.00486315800000E-16   0.00000000000000E+00   0.00000000000000E+00
      0.00000000000000E+00   0.00000000000000E+00  -2.20219688208490E-04  -1.62593442584692E-16  -2.20219688208652E-04
     -1.00486315799999E-16
      3.10000000000000E-02
      9.38000000000000E-01   9.38000000000000E-01   0.00000000000000E+00   0.00000000000000E+00   2.12954708803674E-04
      1.57229535200456E-16   2.12954708803831E-04   9.71713033199998E-17   0.00000000000000E+00   0.00000000000000E+00
      0.00000000000000E+00   0.00000000000000E+00  -2.12954708803674E-04  -1.57229535200456E-16  -2.12954708803831E-04
     -9.71713033199997E-17
      6.30000000000000E-02
      8.74000000000000E-01   8.74000000000000E-01   0.00000000000000E+00   0.00000000000000E+00   1.98424749994043E-04
      1.46501720431982E-16   1.98424749994189E-04   9.05412783600004E-17   0.00000000000000E+00   0.00000000000000E+00
      0.00000000000000E+00   0.00000000000000E+00  -1.98424749994043E-04  -1.46501720431982E-16  -1.98424749994189E-04
     -9.05412783600001E-17
      1.13000000000000E-01
      7.74000000000000E-01   7.74000000000000E-01   0.00000000000000E+00   0.00000000000000E+00   1.75721689353991E-04
      1.29739509856239E-16   1.75721689354121E-04   8.01818643599997E-17   0.00000000000000E+00   0.00000000000000E+00
      0.00000000000000E+00   0.00000000000000E+00  -1.75721689353991E-04  -1.29739509856239E-16  -1.75721689354121E-04
     -8.01818643599997E-17
      1.63000000000000E-01
      6.74000000000000E-01   6.74000000000000E-01   0.00000000000000E+00   0.00000000000000E+00   1.53018628713941E-04
      1.12977299280498E-16   1.53018628714054E-04   6.98224503599998E-17   0.00000000000000E+00   0.00000000000000E+00
      0.00000000000000E+00   0.00000000000000E+00  -1.53018628713941E-04  -1.12977299280498E-16  -1.53018628714054E-04
     -6.98224503599998E-17
      2.13000000000000E-01
      5.74000000000000E-01   5.74000000000000E-01   0.00000000000000E+00   0.00000000000000E+00   1.30315568073890E-04
      9.62150887047562E-17   1.30315568073986E-04   5.94630363599999E-17   0.00000000000000E+00   0.00000000000000E+00
      0.00000000000000E+00   0.00000000000000E+00  -1.30315568073890E-04  -9.62150887047562E-17  -1.30315568073986E-04
     -5.94630363599998E-17
      2.63000000000000E-01
      4.74000000000000E-01   4.74000000000000E-01   0.00000000000000E+00   0.00000000000000E+00   1.07612507433841E-04
      7.94528781290157E-17   1.07612507433920E-04   4.91036223600005E-17   0.00000000000000E+00   0.00000000000000E+00
      0.00000000000000E+00   0.00000000000000E+00  -1.07612507433841E-04  -7.94528781290157E-17  -1.07612507433920E-04
     -4.91036223600004E-17
      3.13000000000000E-01
      3.74000000000000E-01   3.74000000000000E-01   0.00000000000000E+00   0.00000000000000E+00   8.49094467937890E-05
      6.26906675532732E-17   8.49094467938517E-05   3.87442083599999E-17   0.00000000000000E+00   0.00000000000000E+00
      0.00000000000000E+00   0.00000000000000E+00  -8.49094467937890E-05  -6.26906675532732E-17  -8.49094467938517E-05
     -3.87442083599999E-17
      3.63000000000000E-01
      2.74000000000000E-01   2.74000000000000E-01   0.00000000000000E+00   0.00000000000000E+00   6.22063861537385E-05
      4.59284569775317E-17   6.22063861537845E-05   2.83847943600000E-17   0.00000000000000E+00   0.00000000000000E+00
      0.00000000000000E+00   0.00000000000000E+00  -6.22063861537385E-05  -4.59284569775317E-17  -6.22063861537845E-05
     -2.83847943600000E-17
      4.13000000000000E-01
      1.74000000000000E-01   1.74000000000000E-01   0.00000000000000E+00   0.00000000000000E+00   3.95033255136881E-05
      2.91662464017903E-17   3.95033255137173E-05   1.80253803600000E-17   0.00000000000000E+00   0.00000000000000E+00
      0.00000000000000E+00   0.00000000000000E+00  -3.95033255136881E-05  -2.91662464017903E-17  -3.95033255137173E-05
     -1.80253803600000E-17
      4.63000000000000E-01
      7.40000000000001E-02   7.40000000000001E-02   0.00000000000000E+00   0.00000000000000E+00   1.68002648736376E-05
      1.24040358260487E-17   1.68002648736500E-05   7.66596636000008E-18   0.00000000000000E+00   0.00000000000000E+00
      0.00000000000000E+00   0.00000000000000E+00  -1.68002648736376E-05  -1.24040358260487E-17  -1.68002648736500E-05
     -7.66596636000006E-18
      5.13000000000000E-01
     -2.60000000000000E-02  -2.60000000000000E-02   0.00000000000000E+00   0.00000000000000E+00  -5.90279576641295E-06
     -4.35817474969259E-18  -5.90279576641731E-06  -2.69344763999989E-18   0.00000000000000E+00   0.00000000000000E+00
      0.00000000000000E+00   0.00000000000000E+00   5.90279576641295E-06   4.35817474969259E-18   5.90279576641731E-06
      2.69344763999990E-18
      5.63000000000000E-01
     -1.26000000000000E-01  -1.26000000000000E-01   0.00000000000000E+00   0.00000000000000E+00  -2.86058564064635E-05
     -2.11203853254340E-17  -2.86058564064846E-05  -1.30528616399998E-17   0.00000000000000E+00   0.00000000000000E+00
      0.00000000000000E+00   0.00000000000000E+00   2.86058564064635E-05   2.11203853254340E-17   2.86058564064846E-05
      1.30528616399998E-17
      6.13000000000000E-01
     -2.26000000000000E-01  -2.26000000000000E-01   0.00000000000000E+00   0.00000000000000E+00  -5.13089170465145E-05
     -3.78825959011760E-17  -5.13089170465524E-05  -2.34122756400002E-17   0.00000000000000E+00   0.00000000000000E+00
      0.00000000000000E+00   0.00000000000000E+00   5.13089170465145E-05   3.78825959011760E-17   5.13089170465524E-05
      2.34122756400001E-17
      6.63000000000000E-01
     -3.26000000000000E-01  -3.26000000000000E-01   0.00000000000000E+00   0.00000000000000E+00  -7.40119776865651E-05
     -5.46448064769174E-17  -7.40119776866198E-05  -3.37716896400001E-17   0.00000000000000E+00   0.00000000000000E+00
      0.00000000000000E+00   0.00000000000000E+00   7.40119776865651E-05   5.46448064769174E-17   7.40119776866198E-05
      3.37716896400000E-17
      7.13000000000000E-01
     -4.26000000000000E-01  -4.26000000000000E-01   0.00000000000000E+00   0.00000000000000E+00  -9.67150383266156E-05
     -7.14070170526590E-17  -9.67150383266871E-05  -4.41311036400002E-17   0.00000000000000E+00   0.00000000000000E+00
      0.00000000000000E+00   0.00000000000000E+00   9.67150383266156E-05   7.14070170526590E-17   9.67150383266871E-05
      4.41311036400000E-17
      7.63000000000000E-01
     -5.26000000000000E-01  -5.26000000000000E-01   0.00000000000000E+00   0.00000000000000E+00  -1.19418098966666E-04
     -8.81692276284007E-17  -1.19418098966754E-04  -5.44905176400001E-17   0.00000000000000E+00   0.00000000000000E+00
      0.00000000000000E+00   0.00000000000000E+00   1.19418098966666E-04   8.81692276284007E-17   1.19418098966754E-04
      5.44905176400001E-17
      8.13000000000000E-01
     -6.26000000000001E-01  -6.26000000000001E-01   0.00000000000000E+00   0.00000000000000E+00  -1.42121159606717E-04
     -1.04931438204142E-16  -1.42121159606822E-04  -6.48499316400004E-17   0.00000000000000E+00   0.00000000000000E+00
      0.00000000000000E+00   0.00000000000000E+00   1.42121159606717E-04   1.04931438204142E-16   1.42121159606822E-04
      6.48499316400000E-17
      8.63000000000000E-01
     -7.26000000000001E-01  -7.26000000000001E-01   0.00000000000000E+00   0.00000000000000E+00  -1.64824220246767E-04
     -1.21693648779884E-16  -1.64824220246889E-04  -7.52093456400004E-17   0.00000000000000E+00   0.00000000000000E+00
      0.00000000000000E+00   0.00000000000000E+00   1.64824220246767E-04   1.21693648779884E-16   1.64824220246889E-04
      7.52093456400002E-17
      9.13000000000000E-01
     -8.26000000000001E-01  -8.26000000000001E-01   0.00000000000000E+00   0.00000000000000E+00  -1.87527280886818E-04
     -1.38455859355625E-16  -1.87527280886957E-04  -8.55687596400008E-17   0.00000000000000E+00   0.00000000000000E+00
      0.00000000000000E+00   0.00000000000000E+00   1.87527280886818E-04   1.38455859355625E-16   1.87527280886957E-04
      8.55687596400000E-17
      9.63000000000000E-01
     -9.26000000000001E-01  -9.26000000000001E-01   0.00000000000000E+00   0.00000000000000E+00  -2.10230341526868E-04
     -1.55218069931367E-16  -2.10230341527023E-04  -9.59281736400002E-17   0.00000000000000E+00   0.00000000000000E+00
      0.00000000000000E+00   0.00000000000000E+00   2.10230341526868E-04   1.55218069931367E-16   2.10230341527023E-04
      9.59281736400001E-17
      1.00000000000000E+00
     -1.00000000000000E+00  -1.00000000000000E+00   0.00000000000000E+00   0.00000000000000E+00  -2.27030606400506E-04
     -1.67622105757416E-16  -2.27030606400673E-04  -1.03594140000000E-16   0.00000000000000E+00   0.00000000000000E+00
      0.00000000000000E+00   0.00000000000000E+00   2.27030606400506E-04   1.67622105757416E-16   2.27030606400673E-04
      1.03594140000000E-16
}
